<?xml version="1.0"?>
<VTKFile type="UnstructuredGrid"  version="0.1"  >
<UnstructuredGrid>
<Piece  NumberOfPoints="379" NumberOfCells="1009">
<Points>
<DataArray  type="Float64"  NumberOfComponents="3"  format="ascii">0 0 0  -0.05293968296565975 0.0158391196013216 0  -0.16109890388266 0.119517 0  -0.06824195949522076 0.00578982340357311 0  -0.161098903473335 0.001558433373894998 0  -0.16110630918696 -0.01848261529489 0  -0.17280694959533 -0.01848300000000001 0  -0.17280694959533 0.119517 0  0.159471397141795 0.09239551430696501 0  0.1729217879279 0.09239551430696 0  0.17292178803672 -0.066483 0  0.16020704187007 -0.066483 0  -0.06263696160585076 0.0169753303643734 0  -0.07223177699694197 0.01877609290584724 0  -0.08165055733547905 0.02134315036836976 0  -0.09085316503019579 0.02460314961931799 0  -0.09983119672694642 0.02843996570987078 0  -0.108588384359892 0.03275791253432735 0  -0.1171038481952855 0.03753383657995377 0  -0.1252182961040622 0.04295981557528913 0  -0.1327429196504598 0.04917592884790287 0  -0.1395214484166394 0.05619725736595201 0  -0.1454424411103487 0.06395532810148336 0  -0.1504213275145887 0.07234918906936581 0  -0.1544148299174566 0.08125464951567292 0  -0.1574315252007406 0.09053732737911546 0  -0.1595088071947703 0.1000748651251211 0  -0.1607103333335307 0.1097624780406333 0  -0.06059082123044025 0.01081447150244735 0  -0.1601981725473289 0.01074237780722223 0  -0.1563722360308197 0.01907031984362257 0  -0.1487913684261452 0.02412121964758473 0  -0.1396305584941822 0.02483606135236309 0  -0.1305550793000919 0.02311619088806989 0  -0.1216951417978656 0.02047310832722015 0  -0.1129180488257841 0.01756278507118249 0  -0.1041187016346609 0.01472092434483842 0  -0.09524587262414606 0.01211834922592891 0  -0.08629612051675745 0.00979369560010681 0  -0.07728954016148973 0.007699504765897098 0  -0.1611038406157533 -0.01180226573862667 0  -0.1611013720445467 -0.005121916182363335 0  -0.166956629391145 -0.018482807647445 0  -0.17280694959533 0.1096598571428571 0  -0.17280694959533 0.09980271428571429 0  -0.17280694959533 0.08994557142857143 0  -0.17280694959533 0.08008842857142856 0  -0.17280694959533 0.07023128571428572 0  -0.17280694959533 0.06037414285714286 0  -0.17280694959533 0.05051699999999999 0  -0.17280694959533 0.04065985714285714 0  -0.17280694959533 0.03080271428571428 0  -0.17280694959533 0.02094557142857142 0  -0.17280694959533 0.01108842857142857 0  -0.17280694959533 0.001231285714285713 0  -0.17280694959533 -0.008625857142857143 0  -0.166952926738995 0.119517 0  0.1587593091808718 0.08265991173119047 0  0.1569509873852462 0.07306889874597587 0  0.1539275332241496 0.06379047365065359 0  0.1496328845024145 0.0550289211964044 0  0.1440873608156216 0.04700130469213547 0  0.1373997334815228 0.03989688366773032 0  0.1297393194557469 0.03385293366245872 0  0.1213096871935877 0.02893648215321061 0  0.1123106722477414 0.02515884953513028 0  0.1029344376875884 0.02244356264057939 0  0.09333922885625782 0.02064080400186511 0  0.08363482125725004 0.01956022649002136 0  0.07388521790593308 0.01900705401408229 0  0.06412182832042977 0.01878890107785181 0  0.05435604249808651 0.01871519870816611 0  0.04459092438071996 0.01858688912991641 0  0.03483053955900561 0.01825880109556412 0  0.0250774954513721 0.01775616272346632 0  0.01533084835917233 0.01714089392724245 0  0.005587229466982089 0.01647898620802839 0  -0.004158242181210943 0.01584523167377084 0  -0.01391001716729147 0.01531863854078631 0  -0.02366999247521025 0.01497976175138942 0  -0.03343539538593714 0.01490569085099754 0  -0.04319726878633914 0.0151711803324087 0  0.166196592534845 0.09239551430696499 0  0.1729217880299188 -0.056553092855815 0  0.1729217880231175 -0.04662318571163 0  0.1729217880163162 -0.036693278567445 0  0.172921788009515 -0.02676337142326 0  0.1729217880027138 -0.01683346427907501 0  0.1729217879959125 -0.006903557134890007 0  0.1729217879891113 0.003026350009294992 0  0.17292178798231 0.01295625715347999 0  0.1729217879755088 0.02288616429766499 0  0.1729217879687075 0.03281607144184999 0  0.1729217879619062 0.04274597858603499 0  0.172921787955105 0.05267588573021999 0  0.1729217879483038 0.062605792874405 0  0.1729217879415025 0.07253570001859001 0  0.1729217879347013 0.08246560716277503 0  0.166564414953395 -0.066483 0  -0.05872873459131998 0.003937862801775828 0  -0.04919509674605889 0.002193833060428163 0  -0.03964533358390566 0.0005403716867816526 0  -0.03008029206453527 -0.001022289191760208 0  -0.02050129160943472 -0.002496988244267636 0  -0.01090970882384726 -0.003887523187070888 0  -0.001307292908187629 -0.005201217845920047 0  0.00830390593292071 -0.00644908568893927 0  0.01792204365850365 -0.007642323650837171 0  0.02754758481437641 -0.008774147176244721 0  0.03718489241130332 -0.009800586052499644 0  0.04683598821196485 -0.01068775972431446 0  0.05650003446103141 -0.01142038194482338 0  0.06617454924996127 -0.01199876166249673 0  0.07585658347776798 -0.01243379314146303 0  0.08554355970314793 -0.01274031806815087 0  0.09523177390202284 -0.0130060789556301 0  0.1049123927418766 -0.01346425988815514 0  0.1145607152249015 -0.01436656373054902 0  0.12410565047784 -0.01602449166371044 0  0.1333575549311652 -0.0188778202599148 0  0.1418816194102296 -0.02344516753629692 0  0.1489285258068172 -0.03005058123161473 0  0.1539961785724357 -0.03828727062952345 0  0.1573804177531479 -0.04735711826687006 0  0.1593837536566374 -0.05683251324539279 0  -0.1512890870429272 0.03896099640189536 0  -0.1678565749118457 0.07347601037940198 0  -0.167216014170109 0.105534777166673 0  -0.1669107411695247 0.006255576970541327 0  -0.1608818624061052 0.05566703641663216 0  -0.1676931044759583 0.03767650837473559 0  -0.1622642524813295 0.02371880141298209 0  -0.1221754270611227 0.02553049874262701 0  -0.1322252040740015 0.03970431598392522 0  -0.1048105942892577 0.02142543559121064 0  -0.1450649325051711 0.0557392714873985 0  -0.1548050490227784 0.07245414153562703 0  -0.1629253513075038 0.08726763668075958 0  -0.1669214598962117 0.1139470409353365 0  -0.1632155782113543 0.1031128466467364 0  -0.05880242691441913 0.01450952923356043 0  -0.07000614212456591 0.01251262639883041 0  -0.07926992699494606 0.01442846416414455 0  -0.08819482495658301 0.01689763173519078 0  -0.1658750345772098 0.06451746123674175 0  -0.1678718735367931 0.05559344360058842 0  -0.1562955905715462 0.04725157500640319 0  -0.1657056841147409 0.04668912200366457 0  -0.1604664293116098 0.03860470881162754 0  -0.1457142922105873 0.03132014228195615 0  -0.1557814260407642 0.0295632516942628 0  -0.1657475789709502 0.01629919643651954 0  -0.1670768785984435 -0.002617206212692971 0  -0.1672124383584912 -0.01086531378266926 0  -0.1679482984473614 0.02424976351562085 0  -0.1647265106566773 0.03075320822751594 0  -0.1362457303159564 0.03144592144813017 0  -0.141909310530063 0.03936596344679465 0  -0.1270389719533496 0.03110658530785622 0  -0.1173243652877579 0.03073545283772421 0  -0.1236950139669031 0.03656066479792956 0  -0.09977591188531254 0.01698969983591689 0  -0.09618098560818458 0.02015203763212244 0  -0.1088147439767189 0.02764038198490154 0  -0.1144427255220545 0.02380866951374785 0  -0.1473893845103162 0.04744019090301396 0  -0.1523849452574423 0.05564282668857858 0  -0.1571916893355903 0.06407196168805358 0  -0.1614803019492226 0.07260377470917502 0  -0.150278986130774 0.06386990873757299 0  -0.1653466121533971 0.08036166697909002 0  -0.1680591262025708 0.08700742163838297 0  -0.1655508407941177 0.0956822693927782 0  -0.1590508084924535 0.08080486790893239 0  -0.139479935661598 0.04786734999797301 0  0.110026023621491 0.02045410056295889 0  0.1655761312333804 0.02255216095402786 0  0.1520955296164911 0.04719669895603813 0  0.1376537909165083 0.02233434189558614 0  0.01085819560337795 -0.001434747916124204 0  0.03807885135726063 -0.002730537168370531 0  0.06655075203147348 -0.00187115140798165 0  0.09501526646385455 -0.001972415100652977 0  0.1656242418485953 -0.02678515738001923 0  0.1518449355327072 -0.002204260327010141 0  0.1659679981917006 0.07163272189542723 0  0.1233231988724853 -0.00209924231737893 0  0.1588718204122997 0.03462984662671816 0  0.1449763758702585 0.03444706623181738 0  0.1518305833866628 0.02241254437765004 0  0.1238045665454953 0.02218390323561378 0  0.1666459346744584 0.04728155652883409 0  0.1583964360990984 0.05954104003910236 0  0.1163295721608889 0.01005536686288908 0  0.102075886343962 0.01000489732225363 0  0.1090651073200767 -0.001933790912242508 0  0.1298731489898458 -0.01307782322581162 0  0.167151981368316 -0.05159730157902274 0  0.1597105659029384 -0.03917551424725692 0  0.1533431290123777 -0.02622122253207092 0  0.1446670113515625 -0.0142161894403702 0  0.137610376946782 -0.002167888051478453 0  0.1305263761945714 0.01009623487955771 0  0.1447330481648295 0.01010246288174969 0  0.1588642145983519 0.01024623325692629 0  0.1666256677300978 -0.00210539542870343 0  0.1588747723954129 -0.01463065221241441 0  0.001978312628619638 0.009934191660691413 0  -0.01087924190358211 0.009729083601206695 0  -0.005017463544844059 -0.0005819577731595443 0  -0.05406357493566696 0.009307044680230886 0  -0.03951139419979646 0.00981438191371567 0  -0.02689395965938218 0.009673043593553129 0  0.02356801799575353 -0.001909588194346515 0  0.01646250153401155 0.01067065209816277 0  0.03138645148248434 0.009604953026530652 0  0.04517020343581812 0.009570476262058245 0  0.0809845804131904 -0.001832320065994736 0  0.05919643714242462 0.00953241288375882 0  0.07364283255296378 0.009665603076155174 0  0.08771194508873681 0.009663980479651432 0  0.05253519578031568 -0.001677400159169687 0  0.1681912680734151 0.07736991500384637 0  0.1627448156230309 0.07658558751495088 0  0.1610539384077247 0.07077131313607916 0  0.1658254125121503 0.08279885117343723 0  0.1636883272153921 0.08794588851908956 0  0.1683824338783594 0.08788015619112231 0  0.1680445362423267 0.02823895598174309 0  0.1554375474212621 0.04084868805378881 0  0.1484083778692328 0.04068059940
[...]
<CellData  Scalars="f">
<DataArray  type="Float64"  Name="f"  format="ascii">0 3 0 3 0 0 0 3 3 0 0 3 3 0 3 3 0 0 3 3 3 1 0 1 3 0 3 3 0 3 2 0 2 3 0 0 3 3 0 0 3 0 0 0 3 0 0 3 0 0 3 0 0 3 0 0 0 3 0 0 3 0 0 3 0 0 3 0 0 3 0 0 3 0 0 3 0 0 3 0 0 3 0 0 0 3 0 0 0 0 0 0 0 0 0 3 0 0 3 0 0 0 3 0 0 3 0 0 3 0 0 0 3 0 0 3 0 0 3 0 0 3 0 0 0 3 0 0 0 0 3 0 0 0 0 0 1 0 0 1 0 0 1 0 0 1 0 0 0 1 0 0 1 0 0 1 0 0 1 0 0 1 0 0 0 1 0 0 1 0 0 1 0 0 0 0 0 3 0 0 0 3 0 0 0 3 0 0 3 0 0 0 3 0 0 0 3 0 0 3 0 0 0 3 0 0 0 3 0 0 3 0 0 0 3 0 0 3 0 0 0 3 0 0 3 0 0 3 0 0 0 3 0 0 3 0 0 0 3 0 0 0 3 0 0 0 3 0 0 0 3 0 0 0 3 0 0 3 0 0 3 0 0 0 0 0 0 0 2 0 0 2 0 0 2 0 0 0 2 0 0 0 2 0 0 0 2 0 0 2 0 0 2 0 0 0 2 0 0 0 2 0 0 0 2 0 0 2 0 0 2 0 0 0 2 0 0 0 0 0 0 0 3 0 0 3 0 0 3 0 0 3 0 0 0 3 0 0 0 3 0 0 3 0 0 3 0 0 3 0 0 0 3 0 0 0 3 0 0 0 3 0 0 3 0 0 0 3 0 0 3 0 0 3 0 0 0 3 0 0 3 0 0 0 3 0 0 0 3 0 0 3 0 0 0 3 0 0 3 0 0 0 3 0 0 3 0 0 0 0 0 0 0 0 0 0 0 0 0 0 0 0 0 0 0 0 0 0 0 0 0 0 0 0 0 0 0 0 0 0 0 0 0 0 0 0 0 0 0 0 0 0 0 0 0 0 0 0 0 0 0 0 0 0 0 0 0 0 0 0 0 0 0 0 0 0 0 0 0 0 0 0 0 0 0 0 0 0 0 0 0 0 0 0 0 0 0 0 0 0 0 0 0 0 0 0 0 0 0 0 0 0 0 0 0 0 0 0 0 0 0 0 0 0 0 0 0 0 0 0 0 0 0 0 0 0 0 0 0 0 0 0 0 0 0 0 0 0 0 0 0 0 0 0 0 0 0 0 0 0 0 0 0 0 0 0 0 0 0 0 0 0 0 0 0 0 0 0 0 0 0 0 0 0 0 0 0 0 0 0 0 0 0 0 0 0 0 0 0 0 0 0 0 0 0 0 0 0 0 0 0 0 0 0 0 0 0 0 0 0 0 0 0 0 0 0 0 0 0 0 0 0 0 0 0 0 0 0 0 0 0 0 0 0 0 0 0 0 0 0 0 0 0 0 0 0 0 0 0 0 0 0 0 0 0 0 0 0 0 0 0 0 0 0 0 0 0 0 0 0 0 0 0 0 0 0 0 0 0 0 0 0 0 0 0 0 0 0 0 0 0 0 0 0 0 0 0 0 0 0 0 0 0 0 0 0 0 0 0 0 0 0 0 0 0 0 0 0 0 0 0 0 0 0 0 0 0 0 0 0 0 0 0 0 0 0 0 0 0 0 0 0 0 0 0 0 0 0 0 0 0 0 0 0 0 0 0 0 0 0 0 0 0 0 0 0 0 0 0 0 0 0 0 0 0 0 0 0 0 0 0 0 0 0 0 0 0 0 0 0 0 0 0 0 0 0 0 0 0 0 0 0 0 0 0 0 0 0 0 0 0 0 0 0 0 0 0 0 0 0 0 0 0 0 0 0 0 0 0 0 0 0 0 0 0 0 0 0 0 0 0 0 0 0 0 0 0 0 0 0 0 0 0 0 0 0 0 0 0 0 0 0 0 0 0 0 0 0 0 0 0 0 0 0 0 0 0 0 0 0 0 0 0 0 0 0 0 0 0 0 0 0 0 0 0 0 0 0 0 0 0 0 0 0 0 0 0 0 0 0 0 0 0 0 0 0 0 0 0 0 0 0 0 0 0 0 0 0 0 0 0 0 0 0 0 0 0 0 0 0 0 0 0 0 0 0 0 0 0 0 0 0 0 0 0 0 0 0 0 0 0 0 0 0 0 0 0 0 0 0 0 0 0 0 0 0 0 0 0 0 0 0 0 0 0 0 0 0 0 0 0 0 0 0 0 0 0 0 0 </DataArray>
</CellData>
</Piece>
</UnstructuredGrid>
</VTKFile>