<?xml version="1.0"?>
<VTKFile type="UnstructuredGrid"  version="0.1"  >
<UnstructuredGrid>
<Piece  NumberOfPoints="334" NumberOfCells="873">
<Points>
<DataArray  type="Float64"  NumberOfComponents="3"  format="ascii">0 0 0  -0.05293968296565975 0.0158391196013216 0  -0.16109890388266 0.119517 0  -0.06824195949522076 0.00578982340357311 0  -0.161098903473335 0.001558433373894998 0  -0.16110630918696 -0.01848261529489 0  -0.17280694959533 -0.01848300000000001 0  -0.17280694959533 0.119517 0  0.1729217879279 0.09239551430696 0  0.159471397141795 0.09239551430696501 0  0.17292178803672 -0.066483 0  0.16020704187007 -0.066483 0  0.08727804695265129 -0.01278479116395299 0  0.09831418880998415 0.02146915559465657 0  -0.06263696160585076 0.0169753303643734 0  -0.07223177699694197 0.01877609290584724 0  -0.08165055733547905 0.02134315036836976 0  -0.09085316503019579 0.02460314961931799 0  -0.09983119672694642 0.02843996570987078 0  -0.108588384359892 0.03275791253432735 0  -0.1171038481952855 0.03753383657995377 0  -0.1252182961040622 0.04295981557528913 0  -0.1327429196504598 0.04917592884790287 0  -0.1395214484166394 0.05619725736595201 0  -0.1454424411103487 0.06395532810148336 0  -0.1504213275145887 0.07234918906936581 0  -0.1544148299174566 0.08125464951567292 0  -0.1574315252007406 0.09053732737911546 0  -0.1595088071947703 0.1000748651251211 0  -0.1607103333335307 0.1097624780406333 0  -0.06059082123044025 0.01081447150244735 0  -0.1601981725473289 0.01074237780722223 0  -0.1563722360308197 0.01907031984362257 0  -0.1487913684261452 0.02412121964758473 0  -0.1396305584941822 0.02483606135236309 0  -0.1305550793000919 0.02311619088806989 0  -0.1216951417978656 0.02047310832722015 0  -0.1129180488257841 0.01756278507118249 0  -0.1041187016346609 0.01472092434483842 0  -0.09524587262414606 0.01211834922592891 0  -0.08629612051675745 0.00979369560010681 0  -0.07728954016148973 0.007699504765897098 0  -0.1611038406157533 -0.01180226573862667 0  -0.1611013720445467 -0.005121916182363335 0  -0.166956629391145 -0.018482807647445 0  -0.17280694959533 0.1096598571428571 0  -0.17280694959533 0.09980271428571429 0  -0.17280694959533 0.08994557142857143 0  -0.17280694959533 0.08008842857142856 0  -0.17280694959533 0.07023128571428572 0  -0.17280694959533 0.06037414285714286 0  -0.17280694959533 0.05051699999999999 0  -0.17280694959533 0.04065985714285714 0  -0.17280694959533 0.03080271428571428 0  -0.17280694959533 0.02094557142857142 0  -0.17280694959533 0.01108842857142857 0  -0.17280694959533 0.001231285714285713 0  -0.17280694959533 -0.008625857142857143 0  -0.166952926738995 0.119517 0  0.166196592534845 0.09239551430696499 0  0.1729217880299188 -0.056553092855815 0  0.1729217880231175 -0.04662318571163 0  0.1729217880163162 -0.036693278567445 0  0.172921788009515 -0.02676337142326 0  0.1729217880027138 -0.01683346427907501 0  0.1729217879959125 -0.006903557134890007 0  0.1729217879891113 0.003026350009294992 0  0.17292178798231 0.01295625715347999 0  0.1729217879755088 0.02288616429766499 0  0.1729217879687075 0.03281607144184999 0  0.1729217879619062 0.04274597858603499 0  0.172921787955105 0.05267588573021999 0  0.1729217879483038 0.062605792874405 0  0.1729217879415025 0.07253570001859001 0  0.1729217879347013 0.08246560716277503 0  0.166564414953395 -0.066483 0  0.09680813704513361 -0.01306112777115822 0  0.1063285907744608 -0.0135623287108556 0  0.1158117271990763 -0.01453162473763584 0  0.1251798555261776 -0.01627975401640119 0  0.1342318465639224 -0.01924010488337805 0  0.1425218312490904 -0.02390570278844618 0  0.1493176442534686 -0.03054721876736336 0  0.154197561392408 -0.03871547528560859 0  0.1574659788857763 -0.04766075827083253 0  0.1594063860254498 -0.05698861355342796 0  0.09003708241698451 -0.004221304474300599 0  0.09279611788131772 0.00434218221535179 0  0.09555515334565093 0.01290566890500418 0  0.158816089023089 0.08311491025420395 0  0.157171257320681 0.07395910296898818 0  0.1544299687911596 0.06507099283722068 0  0.150536391630671 0.05662498664591632 0  0.1454969872378489 0.04880923399723694 0  0.139390411576174 0.04179557286503649 0  0.1323517618344512 0.03571719025040074 0  0.1245531703265135 0.03064905553794254 0  0.1161701964613723 0.02661848665314723 0  0.1073724646731713 0.02359455123343893 0  -0.05862216218504466 0.003917818068291131 0  -0.04898156812011231 0.002155840926165615 0  -0.03932450986691878 0.0004864517097769465 0  -0.02965186764429781 -0.001090142118432629 0  -0.01996501742631809 -0.002576967760408921 0  -0.01026538417375145 -0.00397800315182668 0  -0.0005548158717098163 -0.005301179255755032 0  0.009164567471375375 -0.006558024780416541 0  0.01889094019031611 -0.007759611687614307 0  0.02862523154939869 -0.008895078001011546 0  0.03837197304480554 -0.009917782231704125 0  0.04813283059548783 -0.01079528985141823 0  0.05790666557426341 -0.01151386085577475 0  0.06769075392938358 -0.01207608112680228 0  0.07748209714895057 -0.01249366630707028 0  0.08894884540337919 0.02007307174390661 0  0.07951289840291531 0.01927316574273143 0  0.0700501299277964 0.01889183574299162 0  0.06058028729566198 0.01875563520520306 0  0.05110958902950962 0.01868928630490237 0  0.04164052332443553 0.01850969188132306 0  0.03217707090444626 0.01813678813527479 0  0.02272056427713327 0.01761537215343685 0  0.01326951277220137 0.01700227138985177 0  0.00382039903370646 0.01635974141447092 0  -0.005631298624190865 0.01575680721067307 0  -0.01508941584464112 0.01526614549296245 0  -0.02455521800692998 0.01496098265000321 0  -0.03402565106428578 0.01491138813962777 0  -0.04349207878994905 0.01518516745102393 0  -0.1512890870429272 0.03896099640189536 0  -0.1678565749118457 0.07347601037940198 0  -0.167216014170109 0.105534777166673 0  -0.1669107411695247 0.006255576970541327 0  -0.1608818624061052 0.05566703641663216 0  -0.1676931044759583 0.03767650837473559 0  -0.1622642524813295 0.02371880141298209 0  -0.1221754270611227 0.02553049874262701 0  -0.1322252040740015 0.03970431598392522 0  -0.1048105942892577 0.02142543559121064 0  -0.1450649325051711 0.0557392714873985 0  -0.1548050490227784 0.07245414153562703 0  -0.1629253513075038 0.08726763668075958 0  -0.1669214598962117 0.1139470409353365 0  -0.1632155782113543 0.1031128466467364 0  -0.05880242691441913 0.01450952923356043 0  -0.07000614212456591 0.01251262639883041 0  -0.07926992699494606 0.01442846416414455 0  -0.08819482495658301 0.01689763173519078 0  -0.1658750345772098 0.06451746123674175 0  -0.1678718735367931 0.05559344360058842 0  -0.1562955905715462 0.04725157500640319 0  -0.1657056841147409 0.04668912200366457 0  -0.1604664293116098 0.03860470881162754 0  -0.1457142922105873 0.03132014228195615 0  -0.1557814260407642 0.0295632516942628 0  -0.1657475789709502 0.01629919643651954 0  -0.1670768785984435 -0.002617206212692971 0  -0.1672124383584912 -0.01086531378266926 0  -0.1679482984473614 0.02424976351562085 0  -0.1647265106566773 0.03075320822751594 0  -0.1362457303159564 0.03144592144813017 0  -0.141909310530063 0.03936596344679465 0  -0.1270389719533496 0.03110658530785622 0  -0.1173243652877579 0.03073545283772421 0  -0.1236950139669031 0.03656066479792956 0  -0.09977591188531254 0.01698969983591689 0  -0.09618098560818458 0.02015203763212244 0  -0.1088147439767189 0.02764038198490154 0  -0.1144427255220545 0.02380866951374785 0  -0.1473893845103162 0.04744019090301396 0  -0.1523849452574423 0.05564282668857858 0  -0.1571916893355903 0.06407196168805358 0  -0.1614803019492226 0.07260377470917502 0  -0.150278986130774 0.06386990873757299 0  -0.1653466121533971 0.08036166697909002 0  -0.1680591262025708 0.08700742163838297 0  -0.1655508407941177 0.0956822693927782 0  -0.1590508084924535 0.08080486790893239 0  -0.139479935661598 0.04786734999797301 0  0.1657797884380136 0.05334468747746716 0  0.09423260805857431 -0.008639796674336578 0  0.1667669216008069 -0.01143473028732624 0  0.1119185869493274 0.01931367853848333 0  0.1299774140421027 -0.01046692185433609 0  0.1671413744654324 -0.04266673929349341 0  0.1487004673343682 0.02109865070997695 0  0.1662175092398522 0.08531086297500885 0  0.1606124298896164 0.06929665115530682 0  0.1568534601022821 -0.02713484049294142 0  0.1130951060262997 -0.009143523499750658 0  0.1487802840855471 -0.0109959554923247 0  0.1025187879414569 0.004585950865441987 0  0.1577850621063825 0.00494512294432424 0  0.1658984860398954 0.02134729129369205 0  0.1397401084768095 0.03472426870890534 0  0.1576426882672194 0.03749625129312269 0  0.1303273051957803 0.02069140411490135 0  0.1394246121168657 0.004992916582713613 0  0.1208193508413334 0.004975617919905667 0  0.1684933784923355 0.05995890235543842 0  0.1616583075304296 0.06150797871572562 0  0.1560660426178668 0.05941612557640553 0  0.158208475234529 0.05378426612933521 0  0.1671025001952552 0.06870136810089324 0  0.1631898744287767 0.0764456940543919 0  0.168765113749525 0.07721406633716595 0  0.1685644386620854 -0.002748522383635529 0  0.1685047929665532 -0.02023773565483933 0  0.1618308690175868 -0.01934515325921876 0  0.1654875847947209 -0.02719706921369616 0  0.1684171208503796 -0.03390198881659943 0  0.1613499093092614 -0.03528911674032278 0  0.1553877839304588 -0.03313303692589391 0  0.1605746035642822 -0.04306902013981673 0  0.1664667054167633 -0.05931002465261528 0  0.163367525955157 -0.05032240847453683 0  0.168839162064189 -0.05120289276672198 0  0.1006468357011698 -0.008712041806521284 0  0.1209125155970645 -0.00956431847698129 0  0.149302945837358 -0.02407330432459585 0  0.1445553297155069 -0.01820166512766815 0  0.1393896193055674 -0.01091614583002147 0  0.1532796201953882 -0.01866374621473542 0  0.1578330458477041 -0.01113265816214545 0  0.09779438904408999 -0.002955221497612917 0  0.09982047945215672 0.01252338688132178 0  0.1074706584747787 0.01232832582343658 0  0.1045716003465062 0.01816250102162066 0  0.1619876052387708 -0.003115533578562937 0  0.1658217153784911 0.004712559555596976 0  0.1532937253075244 0.01305318536560238 0  0.1619498435648178 0.01304437966859319 0  0.1577077506517607 0.02116573644582316 0  0.1690983091735721 0.01300260008208345 0  0.1440341840802005 0.02881081087942554 0  0.153117598551026 0.02923304428516992 0  0.1476276916178967 0.03748176428739081 0  0.1462098268244353 0.04366232636172042 0  0.1526375191555123 0.0461656584961906 0  0.1619339337372838 0.04567509042747887 0  0.1684972832078541 0.0462980239788555 0  0.1666941219108155 0.03753079357084134 0  0.1685256180933364 0.028779008330253 0  0.1618896024036532 0.02924461642544189 0  0.1353129320894655 0.02828514202288102 0  0.1395135120653225 0.02091935218373557 0  0.1265016784007524 0.02727405818280483 0  0.1210288396867458 0.02015032429920606 0  0.1440820631235624 0.01302924932658026 0  0.1487020839872298 0.004978781070606189 0  0.1532694641738836 -0.00307581329871158 0  0.1440644447148591 -0.003033043526662851 0  0.1347388089614108 -0.002940426849583913 0  0.1162989251890241 0.01259428257656242 0  0.111628253683107 0.004689566285616564 0  0.1254578237365769 -0.002751770152586874 0  0.1163835842468464 -0.002747714163956541 0  0.106896770615668 -0.004009647150618245 0  0.1301093875860611 0.00502513845949662 0  0.1255225719333868 0.01283622510574835 0  0.1348087291375712 0.01296355689778396 0  0.05942631693858991 0.003214464889999977 0  0.08750806086524898 0.003057294473011798 0  0.0004444176883047213 0.003782267554111138 0  0.02967594002906901 0.003240932303715693 0  -0.02909678446157535 0.004836160648960058 0  0.08016994149017703 -0.008131889088417527 0  0.05334009677517465 0.01430268174020846 0  0.03708894727409495 0.01423631448359212 0  0.04463982337400088 0.003070244429341437 0  0.06702484089623761 -0.007014457652343174 0  0.05399291627949868 -0.007555526441226201 0  0.0740378019418298 0.003237652187897552 0  0.06635414900428116 0.01437199261193071 0  0.08252547803065308 0.01479062133354443 0  -0.01500829739030229 0.003719711588283145 0  -0.04243772037833551 0.004929799147626923 0  0.01529642225091793 0.003697724434216315 0  0.008327731911777131 0.01345394797883571 0  0.02280339774482043 0.01321435085802025 0  0.0903705926196931 0.009011849138343117 0  0.08412717032497058 -0.00363952899744574 0  0.04533224531847804 0.01430484101265592 0  0.05591054686458363 0.009021626453833406 0  0.04859487548431962 0.009048410209701235 0  0.05209265280481679 0.003035135416497872 0  0.04099712342162648 0.00904355057482982 0  0.03337974757682571 0.009045189429307529 0  0.03718653910904854 0.003115392282833626 0  0.0632728052908233 -0.0025251539307386 0  0.0561438235406912 -0.002709285458602093 0  0.0608040594453314 -0.007542751366724859 0  0.03340291394888262 -0.003034085209033033 0  0.02535516451535907 -0.002517105875956632 0  0.04400125373829747 -0.00704798648795639 0  0.04099454096300434 -0.002974377927218233 0  0.04848929590402723 -0.003630087442764066 0  0.07345446704995473 -0.007818716760534819 0  0.07034822269158342 -0.002503223955156245 0  0.06673623506586859 0.003299995253143687 0  0.07735962794886225 -0.002748621322237785 0  0.08111186030220086 0.003129521962195722 0  0.06305592574943314 0.009036883163062212 0  0.05976433425462671 0.01346754337345775 0  0.08496613645886275 0.00918442269282678 0  0.09005604040753951 0.01474082773300552 0  0.07440439694847498 0.01455215134916375 0  0.07788874719446498 0.009186148148328438 0  0.07040443460148332 0.009119421161447108 0  -0.002512182441370414 0.009742754697744563 0  -0.01069270388496524 0.009559714699551317 0  -0.007145346374954009 0.003941615756576922 0  -0.0188463847747587 0.009291558433188796 0  -0.02540926986328362 0.008475676388115763 0  -0.02289984721568999 0.003715638625129733 0  0.004150557657488063 -0.001536224287717478 0  -0.004043098154432628 -0.0009458392015428557 0  -0.01121661405408364 -0.000309310683447292 0  -0.05242937697608856 0.005832204100110441 0  -0.03547382527530957 0.004518354830811325 0  -0.05450294366210687 0.009047448880830797 0  -0.03152198235744785 0.009494501109898759 0  -0.03931963045058418 0.009591098706797557 0  -0.0477773846682257 0.008918401247384092 0  0.01226830404373175 -0.001888491628534897 0  0.008020203162036721 0.00379151580020709 0  0.01881200260752997 -0.001250113384628868 0  0.0223759074129907 0.003525690974800891 0  0.004856407281589481 0.009553282917068931 0  0.02606751575843358 0.008963107836189491 0  0.02908310447554741 0.01387640818333827 0  0.01771040101256507 0.01372647372051006 0  0.01922205523108633 0.009056906585384508 0  0.01218710887398933 0.01009136469330166 0  </DataArray>
</Points>
<Cells>
<DataArray  type="UInt32"  Name="connectivity"  format="ascii">0 0  1 14  1 30  1 128  1 144  1 320  1 323  2 29  2 58  2 142  3 30  3 41  3 99  3 145  4 31  4 43  4 132  4 156  5 42  5 44  6 44  6 57  6 157  7 45  7 58  7 142  8 59  8 74  8 186  9 59  9 89  9 186  10 60  10 75  10 214  11 75  11 85  11 214  12 76  12 86  12 113  12 180  12 266  12 281  13 88  13 98  13 114  13 225  13 227  13 305  14 15  14 30  14 144  14 145  15 16  15 145  15 146  16 17  16 146  16 147  17 18  17 147  17 166  18 19  18 138  18 166  18 167  19 20  19 163  19 167  20 21  20 163  20 164  21 22  21 137  21 164  22 23  22 137  22 178  23 24  23 139  23 178  24 25  24 139  24 173  25 26  25 140  25 173  26 27  26 140  26 177  27 28  27 141  27 176  27 177  28 29  28 143  28 176  29 131  29 142  29 143  30 99  30 144  30 145  30 320  31 32  31 132  31 155  32 33  32 135  32 154  32 155  33 34  33 153  33 154  34 35  34 153  34 160  35 36  35 136  35 160  35 162  36 37  36 136  36 168  37 38  37 138  37 168  38 39  38 138  38 165  39 40  39 147  39 165  39 166  40 41  40 146  40 147  41 145  41 146  42 43  42 44  42 157  43 156  43 157  44 157  45 46  45 131  45 142  46 47  46 131  46 176  47 48  47 175  47 176  48 49  48 130  48 174  48 175  49 50  49 130  49 148  50 51  50 148  50 149  51 52  51 149  51 151  52 53  52 134  52 151  53 54  53 134  53 158  53 159  54 55  54 155  54 158  55 56  55 132  55 155  56 57  56 132  56 156  57 156  57 157  58 142  59 186  60 61  60 214  60 216  61 62  61 184  61 216  62 63  62 184  62 210  63 64  63 207  63 209  63 210  64 65  64 181  64 207  65 66  65 181  65 206  66 67  66 206  66 229  66 233  67 68  67 233  68 69  68 193  68 233  68 242  69 70  69 241  69 242  70 71  70 240  70 241  71 72  71 179  71 199  71 240  72 73  72 199  72 203  73 74  73 203  73 205  74 186  74 205  75 214  76 77  76 180  76 217  77 78  77 189  77 217  77 257  78 79  78 189  78 218  79 80  79 183  79 218  80 81  80 183  80 220  80 221  81 82  81 219  81 220  82 83  82 188  82 212  82 219  83 84  83 211  83 212  83 213  84 85  84 213  84 215  85 214  85 215  86 87  86 180  86 224  86 262  86 281  87 88  87 191  87 224  87 225  87 262  87 280  88 225  88 280  88 305  89 90  89 186  89 204  90 91  90 187  90 204  91 92  91 187  91 200  91 201  92 93  92 201  92 202  92 238  93 94  93 237  93 238  94 95  94 194  94 236  94 237  95 96  95 194  95 244  95 246  96 97  96 246  97 98  97 182  97 246  97 247  98 182  98 227  99 100  99 318  99 320  100 101  100 276  100 318  100 323  101 102  101 276  101 319  102 103  102 265  102 314  102 319  103 104  103 275  103 314  103 317  104 105  104 316  104 317  105 106  105 315  105 316  106 107  106 315  106 324  107 108  107 293  107 324  107 326  108 109  108 292  108 293  109 110  109 292  109 294  109 295  110 111  110 271  110 294  110 296  111 112  111 271  111 291  112 113  112 270  112 291  112 297  113 266  113 297  114 115  114 274  114 305  115 116  115 274  115 306  116 117  116 273  116 306  117 118  117 267  117 273  117 303  118 119  118 267  118 282  119 120  119 268  119 282  120 121  120 268  120 330  121 122  121 279  121 330  121 331  122 123  122 278  122 331  122 333  123 124  123 278  123 309  123 328  124 125  124 309  124 310  125 126  125 310  125 312  126 127  126 312  126 313  126 321  127 128  127 321  127 322  128 322  128 323  129 150  129 152  129 153  129 154  129 161  129 169  130 148  130 172  130 174  131 142  131 143  131 176  132 155  132 156  133 148  133 149  133 150  133 151  133 170  133 171  134 151  134 152  134 159  135 154  135 155  135 158  135 159  136 162  136 163  136 168  137 160  137 161  137 162  137 164  137 178  138 165  138 166  138 167  138 168  139 169  139 170  139 173  139 178  140 171  140 172  140 173  140 177  141 174  141 175  141 176  141 177  143 176  145 146  146 147  147 166  148 149  148 171  148 172  149 151  150 151  150 152  150 169  150 170  151 152  152 154  152 159  153 154  153 160  153 161  154 159  155 158  156 157  158 159  160 161  160 162  161 169  161 178  162 163  162 164  163 164  163 167  163 168  165 166  167 168  169 170  169 178  170 171  170 173  171 172  171 173  172 174  172 177  174 175  174 177  175 176  179 199  179 200  179 202  179 239  179 240  180 217  180 224  181 206  181 207  181 208  181 223  181 228  182 226  182 227  182 247  182 253  183 218  183 221  183 252  183 255  184 210  184 211  184 213  184 215  184 216  185 230  185 232  185 234  185 235  185 245  185 248  186 204  186 205  187 200  187 203  187 204  188 208  188 209  188 211  188 212  188 219  188 222  189 218  189 256  189 257  190 220  190 221  190 222  190 223  190 250  190 251  191 224  191 225  191 226  191 254  191 257  192 228  192 229  192 230  192 231  192 249  192 250  193 231  193 232  193 233  193 242  193 243  194 234  194 236  194 244  195 235  195 236  195 238  195 239  195 241  195 243  196 244  196 245  196 246  196 247  196 259  196 260  197 248  197 249  197 251  197 252  197 258  197 260  198 253  198 254  198 255  198 256  198 258  198 259  199 200  199 203  200 201  200 202  200 203  201 202  202 238  202 239  203 204  203 205  204 205  206 228  206 229  207 208  207 209  208 209  208 222  208 223  209 210  209 211  210 211  211 212  211 213  213 215  214 215  214 216  215 216  217 224  217 257  218 255  218 256  219 220  219 222  220 221  220 222  221 251  221 252  222 223  223 228  223 250  224 257  225 226  225 227  226 227  226 253  226 254  228 229  228 250  229 231  229 233  230 231  230 232  230 248  230 249  231 232  231 233  232 235  232 243  234 235  234 236  234 244  234 245  235 236  235 243  236 237  236 238  237 238  238 239  239 240  239 241  240 241  241 242  241 243  242 243  244 245  244 246  245 248  245 260  246 247  247 253  247 259  248 249  248 260  249 250  249 251  250 251  251 252  252 255  252 258  253 254  253 259  254 256  254 257  255 256  255 258  256 257  258 259  258 260  259 260  261 283  261 285  261 289  261 290  261 299  261 302  262 280  262 281  262 301  262 304  263 309  263 311  263 315  263 316  263 325  263 328  264 287  264 288  264 292  264 293  264 327  264 329  265 313  265 314  265 319  265 321  266 281  266 297  266 300  267 282  267 283  267 284  267 303  268 282  268 286  268 287  268 330  269 284  269 285  269 286  269 288  269 295  269 296  270 289  270 291  270 297  270 298  271 290  271 291  271 296  272 298  272 299  272 300  272 301  272 307  272 308  273 302  273 303  273 306  273 308  274 304  274 305  274 306  274 307  275 310  275 311  275 312  275 314  275 317  276 319  276 322  276 323  277 324  277 325  277 326  277 327  277 332  277 333  278 328  278 333  279 329  279 330  279 331  279 332  280 304  280 305  281 300  281 301  282 284  282 286  283 284  283 285  283 302  283 303  284 285  284 286  285 290  285 296  286 287  286 288  287 288  287 329  287 330  288 292  288 295  289 290  289 291  289 298  289 299  290 291  290 296  292 293  292 295  293 326  293 327  294 295  294 296  295 296  297 298  297 300  298 299  298 300  299 302  299 308  300 301  301 304  301 307  302 303  302 308  304 305  304 307  306 307  306 308  307 308  309 310  309 311  309 328  310 311  310 312  311 316  311 317  312 313  312 314  313 314  313 321  315 316  315 324  315 325  316 317  318 320  318 323  319 321  319 322  320 323  321 322  322 323  324 325  324 326  325 328  325 333  326 327  327 329  327 332  328 333  329 330  329 332  331 332  331 333  332 333  </DataArray>
<DataArray  type="UInt32"  Name="offsets"  format="ascii">2 4 6 8 10 12 14 16 18 20 22 24 26 28 30 32 34 36 38 40 42 44 46 48 50 52 54 56 58 60 62 64 66 68 70 72 74 76 78 80 82 84 86 88 90 92 94 96 98 100 102 104 106 108 110 112 114 116 118 120 122 124 126 128 130 132 134 136 138 140 142 144 146 148 150 152 154 156 158 160 162 164 166 168 170 172 174 176 178 180 182 184 186 188 190 192 194 196 198 200 202 204 206 208 210 212 214 216 218 220 222 224 226 228 230 232 234 236 238 240 242 244 246 248 250 252 254 256 258 260 262 264 266 268 270 272 274 276 278 280 282 284 286 288 290 292 294 296 298 300 302 304 306 308 310 312 314 316 318 320 322 324 326 328 330 332 334 336 338 340 342 344 346 348 350 352 354 356 358 360 362 364 366 368 370 372 374 376 378 380 382 384 386 388 390 392 394 396 398 400 402 404 406 408 410 412 414 416 418 420 422 424 426 428 430 432 434 436 438 440 442 444 446 448 450 452 454 456 458 460 462 464 466 468 470 472 474 476 478 480 482 484 486 488 490 492 494 496 498 500 502 504 506 508 510 512 514 516 518 520 522 524 526 528 530 532 534 536 538 540 542 544 546 548 550 552 554 556 558 560 562 564 566 568 570 572 574 576 578 580 582 584 586 588 590 592 594 596 598 600 602 604 606 608 610 612 614 616 618 620 622 624 626 628 630 632 634 636 638 640 642 644 646 648 650 652 654 656 658 660 662 664 666 668 670 672 674 676 678 680 682 684 686 688 690 692 694 696 698 700 702 704 706 708 710 712 714 716 718 720 722 724 726 728 730 732 734 736 738 740 742 744 746 748 750 752 754 756 758 760 762 764 766 768 770 772 774 776 778 780 782 784 786 788 790 792 794 796 798 800 802 804 806 808 810 812 814 816 818 820 822 824 826 828 830 832 834 836 838 840 842 844 846 848 850 852 854 856 858 860 862 864 866 868 870 872 874 876 878 880 882 884 886 888 890 892 894 896 898 900 902 904 906 908 910 912 914 916 918 920 922 924 926 928 930 932 934 936 938 940 942 944 946 948 950 952 954 956 958 960 962 964 966 968 970 972 974 976 978 980 982 984 986 988 990 992 994 996 998 1000 1002 1004 1006 1008 1010 1012 1014 1016 1018 1020 1022 1024 1026 1028 1030 1032 1034 1036 1038 1040 1042 1044 1046 1048 1050 1052 1054 1056 1058 1060 1062 1064 1066 1068 1070 1072 1074 1076 1078 1080 1082 1084 1086 1088 1090 1092 1094 1096 1098 1100 1102 1104 1106 1108 1110 1112 1114 1116 1118 1120 1122 1124 1126 1128 1130 1132 1134 1136 1138 1140 1142 1144 1146 1148 1150 1152 1154 1156 1158 1160 1162 1164 1166 1168 1170 1172 1174 1176 1178 1180 1182 1184 1186 1188 1190 1192 1194 1196 1198 1200 1202 1204 1206 1208 1210 1212 1214 1216 1218 1220 1222 1224 1226 1228 1230 1232 1234 1236 1238 1240 1242 1244 1246 1248 1250 1252 1254 1256 1258 1260 1262 1264 1266 1268 1270 1272 1274 1276 1278 1280 1282 1284 1286 1288 1290 1292 1294 1296 1298 1300 1302 1304 1306 1308 1310 1312 1314 1316 1318 1320 1322 1324 1326 1328 1330 1332 1334 1336 1338 1340 1342 1344 1346 1348 1350 1352 1354 1356 1358 1360 1362 1364 1366 1368 1370 1372 1374 1376 1378 1380 1382 1384 1386 1388 1390 1392 1394 1396 1398 1400 1402 1404 1406 1408 1410 1412 1414 1416 1418 1420 1422 1424 1426 1428 1430 1432 1434 1436 1438 1440 1442 1444 1446 1448 1450 1452 1454 1456 1458 1460 1462 1464 1466 1468 1470 1472 1474 1476 1478 1480 1482 1484 1486 1488 1490 1492 1494 1496 1498 1500 1502 1504 1506 1508 1510 1512 1514 1516 1518 1520 1522 1524 1526 1528 1530 1532 1534 1536 1538 1540 1542 1544 1546 1548 1550 1552 1554 1556 1558 1560 1562 1564 1566 1568 1570 1572 1574 1576 1578 1580 1582 1584 1586 1588 1590 1592 1594 1596 1598 1600 1602 1604 1606 1608 1610 1612 1614 1616 1618 1620 1622 1624 1626 1628 1630 1632 1634 1636 1638 1640 1642 1644 1646 1648 1650 1652 1654 1656 1658 1660 1662 1664 1666 1668 1670 1672 1674 1676 1678 1680 1682 1684 1686 1688 1690 1692 1694 1696 1698 1700 1702 1704 1706 1708 1710 1712 1714 1716 1718 1720 1722 1724 1726 1728 1730 1732 1734 1736 1738 1740 1742 1744 1746 </DataArray>
<DataArray  type="UInt8"  Name="types"  format="ascii">3 3 3 3 3 3 3 3 3 3 3 3 3 3 3 3 3 3 3 3 3 3 3 3 3 3 3 3 3 3 3 3 3 3 3 3 3 3 3 3 3 3 3 3 3 3 3 3 3 3 3 3 3 3 3 3 3 3 3 3 3 3 3 3 3 3 3 3 3 3 3 3 3 3 3 3 3 3 3 3 3 3 3 3 3 3 3 3 3 3 3 3 3 3 3 3 3 3 3 3 3 3 3 3 3 3 3 3 3 3 3 3 3 3 3 3 3 3 3 3 3 3 3 3 3 3 3 3 3 3 3 3 3 3 3 3 3 3 3 3 3 3 3 3 3 3 3 3 3 3 3 3 3 3 3 3 3 3 3 3 3 3 3 3 3 3 3 3 3 3 3 3 3 3 3 3 3 3 3 3 3 3 3 3 3 3 3 3 3 3 3 3 3 3 3 3 3 3 3 3 3 3 3 3 3 3 3 3 3 3 3 3 3 3 3 3 3 3 3 3 3 3 3 3 3 3 3 3 3 3 3 3 3 3 3 3 3 3 3 3 3 3 3 3 3 3 3 3 3 3 3 3 3 3 3 3 3 3 3 3 3 3 3 3 3 3 3 3 3 3 3 3 3 3 3 3 3 3 3 3 3 3 3 3 3 3 3 3 3 3 3 3 3 3 3 3 3 3 3 3 3 3 3 3 3 3 3 3 3 3 3 3 3 3 3 3 3 3 3 3 3 3 3 3 3 3 3 3 3 3 3 3 3 3 3 3 3 3 3 3 3 3 3 3 3 3 3 3 3 3 3 3 3 3 3 3 3 3 3 3 3 3 3 3 3 3 3 3 3 3 3 3 3 3 3 3 3 3 3 3 3 3 3 3 3 3 3 3 3 3 3 3 3 3 3 3 3 3 3 3 3 3 3 3 3 3 3 3 3 3 3 3 3 3 3 3 3 3 3 3 3 3 3 3 3 3 3 3 3 3 3 3 3 3 3 3 3 3 3 3 3 3 3 3 3 3 3 3 3 3 3 3 3 3 3 3 3 3 3 3 3 3 3 3 3 3 3 3 3 3 3 3 3 3 3 3 3 3 3 3 3 3 3 3 3 3 3 3 3 3 3 3 3 3 3 3 3 3 3 3 3 3 3 3 3 3 3 3 3 3 3 3 3 3 3 3 3 3 3 3 3 3 3 3 3 3 3 3 3 3 3 3 3 3 3 3 3 3 3 3 3 3 3 3 3 3 3 3 3 3 3 3 3 3 3 3 3 3 3 3 3 3 3 3 3 3 3 3 3 3 3 3 3 3 3 3 3 3 3 3 3 3 3 3 3 3 3 3 3 3 3 3 3 3 3 3 3 3 3 3 3 3 3 3 3 3 3 3 3 3 3 3 3 3 3 3 3 3 3 3 3 3 3 3 3 3 3 3 3 3 3 3 3 3 3 3 3 3 3 3 3 3 3 3 3 3 3 3 3 3 3 3 3 3 3 3 3 3 3 3 3 3 3 3 3 3 3 3 3 3 3 3 3 3 3 3 3 3 3 3 3 3 3 3 3 3 3 3 3 3 3 3 3 3 3 3 3 3 3 3 3 3 3 3 3 3 3 3 3 3 3 3 3 3 3 3 3 3 3 3 3 3 3 3 3 3 3 3 3 3 3 3 3 3 3 3 3 3 3 3 3 3 3 3 3 3 3 3 3 3 3 3 3 3 3 3 3 3 3 3 3 3 3 3 3 3 3 3 3 3 3 3 3 3 3 3 3 3 3 3 3 3 3 3 3 3 3 3 3 3 3 3 3 3 3 3 3 3 3 3 3 3 3 3 3 3 3 3 3 3 3 3 3 3 3 3 3 3 3 3 3 3 3 3 3 3 3 3 3 3 3 3 3 3 3 3 3 3 3 3 3 3 3 3 3 3 3 3 3 3 3 3 3 3 3 3 3 3 3 3 3 3 3 3 3 3 3 3 3 3 3 3 3 </DataArray>
</Cells>
<CellData  Scalars="f">
<DataArray  type="Float64"  Name="f"  format="ascii">0 0 0 0 0 0 0 0 0 0 0 0 0 0 0 0 0 0 0 0 0 0 0 0 0 0 0 0 0 0 0 0 0 0 0 0 0 0 0 0 0 0 0 0 0 0 0 0 0 0 0 0 0 0 0 0 0 0 0 0 0 0 0 0 0 0 0 0 0 0 0 0 0 0 0 0 0 0 0 0 0 0 0 0 0 0 0 0 0 0 0 0 0 0 0 0 0 0 0 0 0 0 0 0 0 0 0 0 0 0 0 0 0 0 0 0 0 0 0 0 0 0 0 0 0 0 0 0 0 0 0 0 0 0 0 0 0 0 0 0 0 0 0 0 0 0 0 0 0 0 0 0 0 0 0 0 0 0 0 0 0 0 0 0 0 0 0 0 0 0 0 0 0 0 0 0 0 0 0 0 0 0 0 0 0 0 0 0 0 0 0 0 0 0 0 0 0 0 0 0 0 0 0 0 0 0 0 0 0 0 0 0 0 0 0 0 0 0 0 0 0 0 0 0 0 0 0 0 0 0 0 0 0 0 0 0 0 0 0 0 0 0 0 0 0 0 0 0 0 0 0 0 0 0 0 0 0 0 0 0 0 0 0 0 0 0 0 0 0 0 0 0 0 0 0 0 0 0 0 0 0 0 0 0 0 0 0 0 0 0 0 0 0 0 0 0 0 0 0 0 0 0 0 0 0 0 0 0 0 0 0 0 0 0 0 0 0 0 0 0 0 0 0 0 0 0 0 0 0 0 0 0 0 0 0 0 0 0 0 0 0 0 0 0 0 0 0 0 0 0 0 0 0 0 0 0 0 0 0 0 0 0 0 0 0 0 0 0 0 0 0 0 0 0 0 0 0 0 0 0 0 0 0 0 0 0 0 0 0 0 0 0 0 0 0 0 0 0 0 0 0 0 0 0 0 0 0 0 0 0 0 0 0 0 0 0 0 0 0 0 0 0 0 0 0 0 0 0 0 0 0 0 0 0 0 0 0 0 0 0 0 0 0 0 0 0 0 0 0 0 0 0 0 0 0 0 0 0 0 0 0 0 0 0 0 0 0 0 0 0 0 0 0 0 0 0 0 0 0 0 0 0 0 0 0 0 0 0 0 0 0 0 0 0 0 0 0 0 0 0 0 0 0 0 0 0 0 0 0 0 0 0 0 0 0 0 0 0 0 0 0 0 0 0 0 0 0 0 0 0 0 0 0 0 0 0 0 0 0 0 0 0 0 0 0 0 0 0 0 0 0 0 0 0 0 0 0 0 0 0 0 0 0 0 0 0 0 0 0 0 0 0 0 0 0 0 0 0 0 0 0 0 0 0 0 0 0 0 0 0 0 0 0 0 0 0 0 0 0 0 0 0 0 0 0 0 0 0 0 0 0 0 0 0 0 0 0 0 0 0 0 0 0 0 0 0 0 0 0 0 0 0 0 0 0 0 0 0 0 0 0 0 0 0 0 0 0 0 0 0 0 0 0 0 0 0 0 0 0 0 0 0 0 0 0 0 0 0 0 0 0 0 0 0 0 0 0 0 0 0 0 0 0 0 0 0 0 0 0 0 0 0 0 0 0 0 0 0 0 0 0 0 0 0 0 0 0 0 0 0 0 0 0 0 0 0 0 0 0 0 0 0 0 0 0 0 0 0 0 0 0 0 0 0 0 0 0 0 0 0 0 0 0 0 0 0 0 0 0 0 0 0 0 0 0 0 0 0 0 0 0 0 0 0 0 0 0 0 0 0 0 0 0 0 0 0 0 0 0 0 0 0 0 0 0 0 0 0 0 0 0 0 0 0 0 0 0 0 0 0 0 0 0 0 0 0 0 0 0 0 0 0 0 0 0 0 0 0 0 0 0 0 0 0 0 0 0 0 0 0 0 0 0 0 0 0 0 0 0 0 0 0 0 0 0 0 0 0 0 0 0 0 0 0 0 0 0 0 0 0 0 0 0 0 0 0 0 0 0 0 0 0 0 </DataArray>
</CellData>
</Piece>
</UnstructuredGrid>
</VTKFile>